ITEM: TIMESTEP
0
ITEM: NUMBER OF ATOMS
5
ITEM: BOX BOUNDS ss ss ss
1.4568500000000000e+00 3.6215431499999995e+03
-5.4315000000000002e-01 5.4315000000000002e-01
-5.4315000000000002e-01 5.4315000000000002e-01
ITEM: ATOMS id type xu yu zu
1 3 2 0 0
2 3 3 0 0
3 3 4 0 0
4 3 5 0 0
5 1 6 0 0

ITEM: TIMESTEP
12
ITEM: NUMBER OF ATOMS
5
ITEM: BOX BOUNDS ss ss ss
1.4568500000000000e+00 3.6215431499999995e+03
-5.4315000000000002e-01 5.4315000000000002e-01
-5.4315000000000002e-01 5.4315000000000002e-01
ITEM: ATOMS id type xu yu zu
1 3 2 0 0
2 3 3 0 3
3 3 4 0 0
4 3 5 0 6
5 1 6 0 0

ITEM: TIMESTEP
25
ITEM: NUMBER OF ATOMS
5
ITEM: BOX BOUNDS ss ss ss
1.4568500000000000e+00 3.6215431499999995e+03
-5.4315000000000002e-01 5.4315000000000002e-01
-5.4315000000000002e-01 5.4315000000000002e-01
ITEM: ATOMS id type xu yu zu
1 3 2 0 0
2 3 3 3 -1
4 3 5 0 0
5 1 6 0 7
3 3 4 0 0
