ITEM: TIMESTEP
0
ITEM: NUMBER OF ATOMS
3620
ITEM: BOX BOUNDS ss ss ss
1.4568500000000000e+00 3.6215431499999995e+03
-5.4315000000000002e-01 5.4315000000000002e-01
-5.4315000000000002e-01 5.4315000000000002e-01
ITEM: ATOMS id type xu yu zu
1 3 2 0 0
2 3 3 0 0
3 3 4 0 0
4 3 5 0 0
5 1 6 0 0
6 1 7 0 0
7 1 8 0 0
8 1 9 0 0
9 1 10 0 0
10 1 11 0 0
11 3 12 0 0
12 3 13 0 0
13 1 14 0 0
14 1 15 0 0
15 3 16 0 0
16 3 17 0 0
17 3 18 0 0
18 3 19 0 0
19 3 20 0 0
20 3 21 0 0
21 3 22 0 0
22 3 23 0 0
23 3 24 0 0
24 3 25 0 0
25 3 26 0 0
26 3 27 0 0
27 1 28 0 0
28 1 29 0 0
29 1 30 0 0
30 1 31 0 0
31 1 32 0 0
32 1 33 0 0
33 3 34 0 0
34 3 35 0 0
35 3 36 0 0
36 3 37 0 0
37 3 38 0 0
38 3 39 0 0
39 4 40 0 0
40 4 41 0 0
41 4 42 0 0
42 4 43 0 0
43 4 44 0 0
44 4 45 0 0
45 4 46 0 0
46 4 47 0 0
47 4 48 0 0
48 4 49 0 0
49 4 50 0 0
50 4 51 0 0
51 4 52 0 0
52 4 53 0 0
53 4 54 0 0
54 4 55 0 0
55 4 56 0 0
56 4 57 0 0
57 4 58 0 0
58 4 59 0 0
59 4 60 0 0
60 4 61 0 0
61 4 62 0 0
62 4 63 0 0
63 4 64 0 0
64 4 65 0 0
65 4 66 0 0
66 4 67 0 0
67 4 68 0 0
68 4 69 0 0
69 4 70 0 0
70 4 71 0 0
71 4 72 0 0
72 4 73 0 0
73 4 74 0 0
74 4 75 0 0
75 4 76 0 0
76 4 77 0 0
77 4 78 0 0
78 4 79 0 0
79 4 80 0 0
80 4 81 0 0
81 4 82 0 0
82 4 83 0 0
83 4 84 0 0
84 4 85 0 0
85 4 86 0 0
86 4 87 0 0
87 4 88 0 0
88 4 89 0 0
89 4 90 0 0
90 4 91 0 0
91 4 92 0 0
92 4 93 0 0
93 4 94 0 0
94 4 95 0 0
95 4 96 0 0
96 4 97 0 0
97 4 98 0 0
98 4 99 0 0
99 4 100 0 0
100 4 101 0 0
101 4 102 0 0
102 4 103 0 0
103 4 104 0 0
104 4 105 0 0
105 4 106 0 0
106 4 107 0 0
107 4 108 0 0
108 4 109 0 0
109 3 110 0 0
110 3 111 0 0
111 4 112 0 0
112 4 113 0 0
113 4 114 0 0
114 4 115 0 0
115 3 116 0 0
116 3 117 0 0
117 4 118 0 0
118 4 119 0 0
119 4 120 0 0
120 4 121 0 0
121 4 122 0 0
122 4 123 0 0
123 4 124 0 0
124 4 125 0 0
125 3 126 0 0
126 3 127 0 0
127 3 128 0 0
128 3 129 0 0
129 3 130 0 0
130 3 131 0 0
131 3 132 0 0
132 3 133 0 0
133 2 134 0 0
134 2 135 0 0
135 2 136 0 0
136 2 137 0 0
137 4 138 0 0
138 4 139 0 0
139 4 140 0 0
140 4 141 0 0
141 4 142 0 0
142 4 143 0 0
143 4 144 0 0
144 4 145 0 0
145 4 146 0 0
146 4 147 0 0
147 4 148 0 0
148 4 149 0 0
149 4 150 0 0
150 4 151 0 0
151 4 152 0 0
152 4 153 0 0
153 4 154 0 0
154 4 155 0 0
155 4 156 0 0
156 4 157 0 0
157 3 158 0 0
158 3 159 0 0
159 4 160 0 0
160 4 161 0 0
161 4 162 0 0
162 4 163 0 0
163 4 164 0 0
164 4 165 0 0
165 4 166 0 0
166 4 167 0 0
167 4 168 0 0
168 4 169 0 0
169 4 170 0 0
170 4 171 0 0
171 4 172 0 0
172 4 173 0 0
173 4 174 0 0
174 4 175 0 0
175 4 176 0 0
176 4 177 0 0
177 4 178 0 0
178 4 179 0 0
179 4 180 0 0
180 4 181 0 0
181 4 182 0 0
182 4 183 0 0
183 4 184 0 0
184 4 185 0 0
185 4 186 0 0
186 4 187 0 0
187 4 188 0 0
188 4 189 0 0
189 4 190 0 0
190 4 191 0 0
191 4 192 0 0
192 4 193 0 0
193 4 194 0 0
194 4 195 0 0
195 4 196 0 0
196 4 197 0 0
197 4 198 0 0
198 4 199 0 0
199 4 200 0 0
200 4 201 0 0
201 4 202 0 0
202 4 203 0 0
203 4 204 0 0
204 4 205 0 0
205 2 206 0 0
206 2 207 0 0
207 2 208 0 0
208 2 209 0 0
209 2 210 0 0
210 2 211 0 0
211 2 212 0 0
212 2 213 0 0
213 2 214 0 0
214 2 215 0 0
215 2 216 0 0
216 2 217 0 0
217 4 218 0 0
218 4 219 0 0
219 4 220 0 0
220 4 221 0 0
221 4 222 0 0
222 4 223 0 0
223 4 224 0 0
224 4 225 0 0
225 4 226 0 0
226 4 227 0 0
227 4 228 0 0
228 4 229 0 0
229 4 230 0 0
230 4 231 0 0
231 4 232 0 0
232 4 233 0 0
233 4 234 0 0
234 4 235 0 0
235 4 236 0 0
236 4 237 0 0
237 4 238 0 0
238 4 239 0 0
239 4 240 0 0
240 4 241 0 0
241 4 242 0 0
242 4 243 0 0
243 4 244 0 0
244 4 245 0 0
245 4 246 0 0
246 4 247 0 0
247 4 248 0 0
248 4 249 0 0
249 4 250 0 0
250 4 251 0 0
251 4 252 0 0
252 4 253 0 0
253 4 254 0 0
254 4 255 0 0
255 4 256 0 0
256 4 257 0 0
257 5 258 0 0
258 5 259 0 0
259 4 260 0 0
260 4 261 0 0
261 4 262 0 0
262 4 263 0 0
263 4 264 0 0
264 4 265 0 0
265 4 266 0 0
266 4 267 0 0
267 4 268 0 0
268 4 269 0 0
269 4 270 0 0
270 4 271 0 0
271 4 272 0 0
272 4 273 0 0
273 4 274 0 0
274 4 275 0 0
275 4 276 0 0
276 4 277 0 0
277 4 278 0 0
278 4 279 0 0
279 4 280 0 0
280 4 281 0 0
281 3 282 0 0
282 3 283 0 0
283 2 284 0 0
284 2 285 0 0
285 2 286 0 0
286 2 287 0 0
287 2 288 0 0
288 2 289 0 0
289 2 290 0 0
290 2 291 0 0
291 2 292 0 0
292 2 293 0 0
293 2 294 0 0
294 2 295 0 0
295 2 296 0 0
296 2 297 0 0
297 2 298 0 0
298 2 299 0 0
299 4 300 0 0
300 4 301 0 0
301 4 302 0 0
302 4 303 0 0
303 4 304 0 0
304 4 305 0 0
305 4 306 0 0
306 4 307 0 0
307 4 308 0 0
308 4 309 0 0
309 4 310 0 0
310 4 311 0 0
311 4 312 0 0
312 4 313 0 0
313 4 314 0 0
314 4 315 0 0
315 4 316 0 0
316 4 317 0 0
317 4 318 0 0
318 4 319 0 0
319 4 320 0 0
320 4 321 0 0
321 4 322 0 0
322 4 323 0 0
323 4 324 0 0
324 4 325 0 0
325 4 326 0 0
326 4 327 0 0
327 4 328 0 0
328 4 329 0 0
329 4 330 0 0
330 4 331 0 0
331 4 332 0 0
332 4 333 0 0
333 4 334 0 0
334 4 335 0 0
335 4 336 0 0
336 4 337 0 0
337 4 338 0 0
338 4 339 0 0
339 4 340 0 0
340 4 341 0 0
341 4 342 0 0
342 4 343 0 0
343 4 344 0 0
344 4 345 0 0
345 2 346 0 0
346 2 347 0 0
347 2 348 0 0
348 2 349 0 0
349 4 350 0 0
350 4 351 0 0
351 6 352 0 0
352 6 353 0 0
353 4 354 0 0
354 4 355 0 0
355 4 356 0 0
356 4 357 0 0
357 4 358 0 0
358 4 359 0 0
359 4 360 0 0
360 4 361 0 0
361 4 362 0 0
362 4 363 0 0
363 4 364 0 0
364 4 365 0 0
365 4 366 0 0
366 4 367 0 0
367 5 368 0 0
368 5 369 0 0
369 5 370 0 0
370 5 371 0 0
371 5 372 0 0
372 5 373 0 0
373 5 374 0 0
374 5 375 0 0
375 2 376 0 0
376 2 377 0 0
377 5 378 0 0
378 5 379 0 0
379 5 380 0 0
380 5 381 0 0
381 5 382 0 0
382 5 383 0 0
383 5 384 0 0
384 5 385 0 0
385 5 386 0 0
386 5 387 0 0
387 5 388 0 0
388 5 389 0 0
389 5 390 0 0
390 5 391 0 0
391 5 392 0 0
392 5 393 0 0
393 5 394 0 0
394 5 395 0 0
395 5 396 0 0
396 5 397 0 0
397 5 398 0 0
398 5 399 0 0
399 5 400 0 0
400 5 401 0 0
401 5 402 0 0
402 5 403 0 0
403 5 404 0 0
404 5 405 0 0
405 5 406 0 0
406 5 407 0 0
407 5 408 0 0
408 5 409 0 0
409 5 410 0 0
410 5 411 0 0
411 5 412 0 0
412 5 413 0 0
413 5 414 0 0
414 5 415 0 0
415 6 416 0 0
416 6 417 0 0
417 6 418 0 0
418 6 419 0 0
419 5 420 0 0
420 5 421 0 0
421 5 422 0 0
422 5 423 0 0
423 5 424 0 0
424 5 425 0 0
425 5 426 0 0
426 5 427 0 0
427 6 428 0 0
428 6 429 0 0
429 5 430 0 0
430 5 431 0 0
431 5 432 0 0
432 5 433 0 0
433 5 434 0 0
434 5 435 0 0
435 5 436 0 0
436 5 437 0 0
437 5 438 0 0
438 5 439 0 0
439 5 440 0 0
440 5 441 0 0
441 5 442 0 0
442 5 443 0 0
443 5 444 0 0
444 5 445 0 0
445 5 446 0 0
446 5 447 0 0
447 5 448 0 0
448 5 449 0 0
449 5 450 0 0
450 5 451 0 0
451 5 452 0 0
452 5 453 0 0
453 5 454 0 0
454 5 455 0 0
455 5 456 0 0
456 5 457 0 0
457 5 458 0 0
458 5 459 0 0
459 5 460 0 0
460 5 461 0 0
461 5 462 0 0
462 5 463 0 0
463 5 464 0 0
464 5 465 0 0
465 5 466 0 0
466 5 467 0 0
467 5 468 0 0
468 5 469 0 0
469 5 470 0 0
470 5 471 0 0
471 5 472 0 0
472 5 473 0 0
473 5 474 0 0
474 5 475 0 0
475 5 476 0 0
476 5 477 0 0
477 5 478 0 0
478 5 479 0 0
479 5 480 0 0
480 5 481 0 0
481 5 482 0 0
482 5 483 0 0
483 5 484 0 0
484 5 485 0 0
485 5 486 0 0
486 5 487 0 0
487 5 488 0 0
488 5 489 0 0
489 5 490 0 0
490 5 491 0 0
491 5 492 0 0
492 5 493 0 0
493 5 494 0 0
494 5 495 0 0
495 5 496 0 0
496 5 497 0 0
497 5 498 0 0
498 5 499 0 0
499 5 500 0 0
500 5 501 0 0
501 5 502 0 0
502 5 503 0 0
503 5 504 0 0
504 5 505 0 0
505 5 506 0 0
506 5 507 0 0
507 5 508 0 0
508 5 509 0 0
509 5 510 0 0
510 5 511 0 0
511 5 512 0 0
512 5 513 0 0
513 5 514 0 0
514 5 515 0 0
515 5 516 0 0
516 5 517 0 0
517 5 518 0 0
518 5 519 0 0
519 5 520 0 0
520 5 521 0 0
521 5 522 0 0
522 5 523 0 0
523 5 524 0 0
524 5 525 0 0
525 5 526 0 0
526 5 527 0 0
527 5 528 0 0
528 5 529 0 0
529 5 530 0 0
530 5 531 0 0
531 5 532 0 0
532 5 533 0 0
533 5 534 0 0
534 5 535 0 0
535 5 536 0 0
536 5 537 0 0
537 5 538 0 0
538 5 539 0 0
539 5 540 0 0
540 5 541 0 0
541 5 542 0 0
542 5 543 0 0
543 5 544 0 0
544 5 545 0 0
545 5 546 0 0
546 5 547 0 0
547 5 548 0 0
548 5 549 0 0
549 5 550 0 0
550 5 551 0 0
551 5 552 0 0
552 5 553 0 0
553 5 554 0 0
554 5 555 0 0
555 5 556 0 0
556 5 557 0 0
557 5 558 0 0
558 5 559 0 0
559 5 560 0 0
560 5 561 0 0
561 5 562 0 0
562 5 563 0 0
563 5 564 0 0
564 5 565 0 0
565 5 566 0 0
566 5 567 0 0
567 5 568 0 0
568 5 569 0 0
569 5 570 0 0
570 5 571 0 0
571 5 572 0 0
572 5 573 0 0
573 5 574 0 0
574 5 575 0 0
575 5 576 0 0
576 5 577 0 0
577 5 578 0 0
578 5 579 0 0
579 5 580 0 0
580 5 581 0 0
581 5 582 0 0
582 5 583 0 0
583 5 584 0 0
584 5 585 0 0
585 5 586 0 0
586 5 587 0 0
587 5 588 0 0
588 5 589 0 0
589 5 590 0 0
590 5 591 0 0
591 5 592 0 0
592 5 593 0 0
593 5 594 0 0
594 5 595 0 0
595 5 596 0 0
596 5 597 0 0
597 5 598 0 0
598 5 599 0 0
599 5 600 0 0
600 5 601 0 0
601 5 602 0 0
602 5 603 0 0
603 5 604 0 0
604 5 605 0 0
605 5 606 0 0
606 5 607 0 0
607 5 608 0 0
608 5 609 0 0
609 5 610 0 0
610 5 611 0 0
611 5 612 0 0
612 5 613 0 0
613 5 614 0 0
614 5 615 0 0
615 5 616 0 0
616 5 617 0 0
617 5 618 0 0
618 5 619 0 0
619 5 620 0 0
620 5 621 0 0
621 4 622 0 0
622 4 623 0 0
623 5 624 0 0
624 5 625 0 0
625 4 626 0 0
626 4 627 0 0
627 4 628 0 0
628 4 629 0 0
629 2 630 0 0
630 2 631 0 0
631 2 632 0 0
632 2 633 0 0
633 3 634 0 0
634 3 635 0 0
635 3 636 0 0
636 3 637 0 0
637 3 638 0 0
638 3 639 0 0
639 3 640 0 0
640 3 641 0 0
641 3 642 0 0
642 3 643 0 0
643 2 644 0 0
644 2 645 0 0
645 2 646 0 0
646 2 647 0 0
647 2 648 0 0
648 2 649 0 0
649 2 650 0 0
650 2 651 0 0
651 2 652 0 0
652 2 653 0 0
653 3 654 0 0
654 3 655 0 0
655 4 656 0 0
656 4 657 0 0
657 4 658 0 0
658 4 659 0 0
659 4 660 0 0
660 4 661 0 0
661 4 662 0 0
662 4 663 0 0
663 4 664 0 0
664 4 665 0 0
665 4 666 0 0
666 4 667 0 0
667 4 668 0 0
668 4 669 0 0
669 2 670 0 0
670 2 671 0 0
671 2 672 0 0
672 2 673 0 0
673 2 674 0 0
674 2 675 0 0
675 2 676 0 0
676 2 677 0 0
677 2 678 0 0
678 2 679 0 0
679 2 680 0 0
680 2 681 0 0
681 2 682 0 0
682 2 683 0 0
683 3 684 0 0
684 3 685 0 0
685 6 686 0 0
686 6 687 0 0
687 6 688 0 0
688 6 689 0 0
689 3 690 0 0
690 3 691 0 0
691 3 692 0 0
692 3 693 0 0
693 3 694 0 0
694 3 695 0 0
695 3 696 0 0
696 3 697 0 0
697 3 698 0 0
698 3 699 0 0
699 2 700 0 0
700 2 701 0 0
701 3 702 0 0
702 3 703 0 0
703 2 704 0 0
704 2 705 0 0
705 2 706 0 0
706 2 707 0 0
707 2 708 0 0
708 2 709 0 0
709 4 710 0 0
710 4 711 0 0
711 4 712 0 0
712 4 713 0 0
713 4 714 0 0
714 4 715 0 0
715 4 716 0 0
716 4 717 0 0
717 2 718 0 0
718 2 719 0 0
719 4 720 0 0
720 4 721 0 0
721 4 722 0 0
722 4 723 0 0
723 2 724 0 0
724 2 725 0 0
725 2 726 0 0
726 2 727 0 0
727 3 728 0 0
728 3 729 0 0
729 4 730 0 0
730 4 731 0 0
731 3 732 0 0
732 3 733 0 0
733 3 734 0 0
734 3 735 0 0
735 2 736 0 0
736 2 737 0 0
737 2 738 0 0
738 2 739 0 0
739 2 740 0 0
740 2 741 0 0
741 2 742 0 0
742 2 743 0 0
743 2 744 0 0
744 2 745 0 0
745 2 746 0 0
746 2 747 0 0
747 2 748 0 0
748 2 749 0 0
749 2 750 0 0
750 2 751 0 0
751 2 752 0 0
752 2 753 0 0
753 2 754 0 0
754 2 755 0 0
755 3 756 0 0
756 3 757 0 0
757 3 758 0 0
758 3 759 0 0
759 4 760 0 0
760 4 761 0 0
761 4 762 0 0
762 4 763 0 0
763 4 764 0 0
764 4 765 0 0
765 4 766 0 0
766 4 767 0 0
767 4 768 0 0
768 4 769 0 0
769 4 770 0 0
770 4 771 0 0
771 4 772 0 0
772 4 773 0 0
773 4 774 0 0
774 4 775 0 0
775 4 776 0 0
776 4 777 0 0
777 4 778 0 0
778 4 779 0 0
779 3 780 0 0
780 3 781 0 0
781 2 782 0 0
782 2 783 0 0
783 4 784 0 0
784 4 785 0 0
785 4 786 0 0
786 4 787 0 0
787 4 788 0 0
788 4 789 0 0
789 4 790 0 0
790 4 791 0 0
791 4 792 0 0
792 4 793 0 0
793 4 794 0 0
794 4 795 0 0
795 4 796 0 0
796 4 797 0 0
797 4 798 0 0
798 4 799 0 0
799 5 800 0 0
800 5 801 0 0
801 4 802 0 0
802 4 803 0 0
803 4 804 0 0
804 4 805 0 0
805 4 806 0 0
806 4 807 0 0
807 4 808 0 0
808 4 809 0 0
809 2 810 0 0
810 2 811 0 0
811 4 812 0 0
812 4 813 0 0
813 4 814 0 0
814 4 815 0 0
815 2 816 0 0
816 2 817 0 0
817 2 818 0 0
818 2 819 0 0
819 4 820 0 0
820 4 821 0 0
821 4 822 0 0
822 4 823 0 0
823 4 824 0 0
824 4 825 0 0
825 4 826 0 0
826 4 827 0 0
827 4 828 0 0
828 4 829 0 0
829 4 830 0 0
830 4 831 0 0
831 4 832 0 0
832 4 833 0 0
833 4 834 0 0
834 4 835 0 0
835 2 836 0 0
836 2 837 0 0
837 2 838 0 0
838 2 839 0 0
839 2 840 0 0
840 2 841 0 0
841 4 842 0 0
842 4 843 0 0
843 4 844 0 0
844 4 845 0 0
845 4 846 0 0
846 4 847 0 0
847 4 848 0 0
848 4 849 0 0
849 4 850 0 0
850 4 851 0 0
851 4 852 0 0
852 4 853 0 0
853 4 854 0 0
854 4 855 0 0
855 4 856 0 0
856 4 857 0 0
857 4 858 0 0
858 4 859 0 0
859 2 860 0 0
860 2 861 0 0
861 2 862 0 0
862 2 863 0 0
863 2 864 0 0
864 2 865 0 0
865 2 866 0 0
866 2 867 0 0
867 2 868 0 0
868 2 869 0 0
869 2 870 0 0
870 2 871 0 0
871 2 872 0 0
872 2 873 0 0
873 2 874 0 0
874 2 875 0 0
875 4 876 0 0
876 4 877 0 0
877 4 878 0 0
878 4 879 0 0
879 4 880 0 0
880 4 881 0 0
881 4 882 0 0
882 4 883 0 0
883 4 884 0 0
884 4 885 0 0
885 4 886 0 0
886 4 887 0 0
887 4 888 0 0
888 4 889 0 0
889 4 890 0 0
890 4 891 0 0
891 4 892 0 0
892 4 893 0 0
893 4 894 0 0
894 4 895 0 0
895 4 896 0 0
896 4 897 0 0
897 4 898 0 0
898 4 899 0 0
899 4 900 0 0
900 4 901 0 0
901 4 902 0 0
902 4 903 0 0
903 4 904 0 0
904 4 905 0 0
905 4 906 0 0
906 4 907 0 0
907 4 908 0 0
908 4 909 0 0
909 4 910 0 0
910 4 911 0 0
911 4 912 0 0
912 4 913 0 0
913 4 914 0 0
914 4 915 0 0
915 4 916 0 0
916 4 917 0 0
917 4 918 0 0
918 4 919 0 0
919 6 920 0 0
920 6 921 0 0
921 4 922 0 0
922 4 923 0 0
923 4 924 0 0
924 4 925 0 0
925 6 926 0 0
926 6 927 0 0
927 6 928 0 0
928 6 929 0 0
929 6 930 0 0
930 6 931 0 0
931 6 932 0 0
932 6 933 0 0
933 6 934 0 0
934 6 935 0 0
935 6 936 0 0
936 6 937 0 0
937 6 938 0 0
938 6 939 0 0
939 6 940 0 0
940 6 941 0 0
941 6 942 0 0
942 6 943 0 0
943 6 944 0 0
944 6 945 0 0
945 6 946 0 0
946 6 947 0 0
947 6 948 0 0
948 6 949 0 0
949 6 950 0 0
950 6 951 0 0
951 6 952 0 0
952 6 953 0 0
953 6 954 0 0
954 6 955 0 0
955 6 956 0 0
956 6 957 0 0
957 6 958 0 0
958 6 959 0 0
959 6 960 0 0
960 6 961 0 0
961 6 962 0 0
962 6 963 0 0
963 6 964 0 0
964 6 965 0 0
965 6 966 0 0
966 6 967 0 0
967 6 968 0 0
968 6 969 0 0
969 6 970 0 0
970 6 971 0 0
971 6 972 0 0
972 6 973 0 0
973 6 974 0 0
974 6 975 0 0
975 6 976 0 0
976 6 977 0 0
977 6 978 0 0
978 6 979 0 0
979 6 980 0 0
980 6 981 0 0
981 6 982 0 0
982 6 983 0 0
983 6 984 0 0
984 6 985 0 0
985 6 986 0 0
986 6 987 0 0
987 6 988 0 0
988 6 989 0 0
989 6 990 0 0
990 6 991 0 0
991 4 992 0 0
992 4 993 0 0
993 4 994 0 0
994 4 995 0 0
995 4 996 0 0
996 4 997 0 0
997 4 998 0 0
998 4 999 0 0
999 2 1000 0 0
1000 2 1001 0 0
1001 2 1002 0 0
1002 2 1003 0 0
1003 4 1004 0 0
1004 4 1005 0 0
1005 4 1006 0 0
1006 4 1007 0 0
1007 4 1008 0 0
1008 4 1009 0 0
1009 5 1010 0 0
1010 5 1011 0 0
1011 5 1012 0 0
1012 5 1013 0 0
1013 5 1014 0 0
1014 5 1015 0 0
1015 5 1016 0 0
1016 5 1017 0 0
1017 5 1018 0 0
1018 5 1019 0 0
1019 5 1020 0 0
1020 5 1021 0 0
1021 5 1022 0 0
1022 5 1023 0 0
1023 5 1024 0 0
1024 5 1025 0 0
1025 5 1026 0 0
1026 5 1027 0 0
1027 5 1028 0 0
1028 5 1029 0 0
1029 5 1030 0 0
1030 5 1031 0 0
1031 5 1032 0 0
1032 5 1033 0 0
1033 5 1034 0 0
1034 5 1035 0 0
1035 5 1036 0 0
1036 5 1037 0 0
1037 5 1038 0 0
1038 5 1039 0 0
1039 5 1040 0 0
1040 5 1041 0 0
1041 5 1042 0 0
1042 5 1043 0 0
1043 5 1044 0 0
1044 5 1045 0 0
1045 5 1046 0 0
1046 5 1047 0 0
1047 5 1048 0 0
1048 5 1049 0 0
1049 5 1050 0 0
1050 5 1051 0 0
1051 5 1052 0 0
1052 5 1053 0 0
1053 5 1054 0 0
1054 5 1055 0 0
1055 5 1056 0 0
1056 5 1057 0 0
1057 2 1058 0 0
1058 2 1059 0 0
1059 2 1060 0 0
1060 2 1061 0 0
1061 5 1062 0 0
1062 5 1063 0 0
1063 5 1064 0 0
1064 5 1065 0 0
1065 5 1066 0 0
1066 5 1067 0 0
1067 5 1068 0 0
1068 5 1069 0 0
1069 5 1070 0 0
1070 5 1071 0 0
1071 2 1072 0 0
1072 2 1073 0 0
1073 2 1074 0 0
1074 2 1075 0 0
1075 3 1076 0 0
1076 3 1077 0 0
1077 3 1078 0 0
1078 3 1079 0 0
1079 3 1080 0 0
1080 3 1081 0 0
1081 3 1082 0 0
1082 3 1083 0 0
1083 4 1084 0 0
1084 4 1085 0 0
1085 4 1086 0 0
1086 4 1087 0 0
1087 3 1088 0 0
1088 3 1089 0 0
1089 3 1090 0 0
1090 3 1091 0 0
1091 2 1092 0 0
1092 2 1093 0 0
1093 2 1094 0 0
1094 2 1095 0 0
1095 2 1096 0 0
1096 2 1097 0 0
1097 2 1098 0 0
1098 2 1099 0 0
1099 2 1100 0 0
1100 2 1101 0 0
1101 2 1102 0 0
1102 2 1103 0 0
1103 2 1104 0 0
1104 2 1105 0 0
1105 2 1106 0 0
1106 2 1107 0 0
1107 1 1108 0 0
1108 1 1109 0 0
1109 2 1110 0 0
1110 2 1111 0 0
1111 2 1112 0 0
1112 2 1113 0 0
1113 2 1114 0 0
1114 2 1115 0 0
1115 2 1116 0 0
1116 2 1117 0 0
1117 2 1118 0 0
1118 2 1119 0 0
1119 2 1120 0 0
1120 2 1121 0 0
1121 2 1122 0 0
1122 2 1123 0 0
1123 2 1124 0 0
1124 2 1125 0 0
1125 2 1126 0 0
1126 2 1127 0 0
1127 2 1128 0 0
1128 2 1129 0 0
1129 2 1130 0 0
1130 2 1131 0 0
1131 2 1132 0 0
1132 2 1133 0 0
1133 5 1134 0 0
1134 5 1135 0 0
1135 5 1136 0 0
1136 5 1137 0 0
1137 5 1138 0 0
1138 5 1139 0 0
1139 5 1140 0 0
1140 5 1141 0 0
1141 5 1142 0 0
1142 5 1143 0 0
1143 5 1144 0 0
1144 5 1145 0 0
1145 5 1146 0 0
1146 5 1147 0 0
1147 5 1148 0 0
1148 5 1149 0 0
1149 5 1150 0 0
1150 5 1151 0 0
1151 5 1152 0 0
1152 5 1153 0 0
1153 5 1154 0 0
1154 5 1155 0 0
1155 5 1156 0 0
1156 5 1157 0 0
1157 5 1158 0 0
1158 5 1159 0 0
1159 5 1160 0 0
1160 5 1161 0 0
1161 5 1162 0 0
1162 5 1163 0 0
1163 5 1164 0 0
1164 5 1165 0 0
1165 5 1166 0 0
1166 5 1167 0 0
1167 5 1168 0 0
1168 5 1169 0 0
1169 5 1170 0 0
1170 5 1171 0 0
1171 5 1172 0 0
1172 5 1173 0 0
1173 5 1174 0 0
1174 5 1175 0 0
1175 5 1176 0 0
1176 5 1177 0 0
1177 5 1178 0 0
1178 5 1179 0 0
1179 5 1180 0 0
1180 5 1181 0 0
1181 5 1182 0 0
1182 5 1183 0 0
1183 5 1184 0 0
1184 5 1185 0 0
1185 5 1186 0 0
1186 5 1187 0 0
1187 5 1188 0 0
1188 5 1189 0 0
1189 5 1190 0 0
1190 5 1191 0 0
1191 5 1192 0 0
1192 5 1193 0 0
1193 2 1194 0 0
1194 2 1195 0 0
1195 2 1196 0 0
1196 2 1197 0 0
1197 2 1198 0 0
1198 2 1199 0 0
1199 2 1200 0 0
1200 2 1201 0 0
1201 5 1202 0 0
1202 5 1203 0 0
1203 2 1204 0 0
1204 2 1205 0 0
1205 2 1206 0 0
1206 2 1207 0 0
1207 2 1208 0 0
1208 2 1209 0 0
1209 2 1210 0 0
1210 2 1211 0 0
1211 2 1212 0 0
1212 2 1213 0 0
1213 2 1214 0 0
1214 2 1215 0 0
1215 5 1216 0 0
1216 5 1217 0 0
1217 5 1218 0 0
1218 5 1219 0 0
1219 5 1220 0 0
1220 5 1221 0 0
1221 5 1222 0 0
1222 5 1223 0 0
1223 5 1224 0 0
1224 5 1225 0 0
1225 5 1226 0 0
1226 5 1227 0 0
1227 5 1228 0 0
1228 5 1229 0 0
1229 5 1230 0 0
1230 5 1231 0 0
1231 2 1232 0 0
1232 2 1233 0 0
1233 2 1234 0 0
1234 2 1235 0 0
1235 2 1236 0 0
1236 2 1237 0 0
1237 2 1238 0 0
1238 2 1239 0 0
1239 5 1240 0 0
1240 5 1241 0 0
1241 5 1242 0 0
1242 5 1243 0 0
1243 5 1244 0 0
1244 5 1245 0 0
1245 5 1246 0 0
1246 5 1247 0 0
1247 5 1248 0 0
1248 5 1249 0 0
1249 5 1250 0 0
1250 5 1251 0 0
1251 5 1252 0 0
1252 5 1253 0 0
1253 5 1254 0 0
1254 5 1255 0 0
1255 5 1256 0 0
1256 5 1257 0 0
1257 5 1258 0 0
1258 5 1259 0 0
1259 5 1260 0 0
1260 5 1261 0 0
1261 5 1262 0 0
1262 5 1263 0 0
1263 5 1264 0 0
1264 5 1265 0 0
1265 5 1266 0 0
1266 5 1267 0 0
1267 5 1268 0 0
1268 5 1269 0 0
1269 5 1270 0 0
1270 5 1271 0 0
1271 5 1272 0 0
1272 5 1273 0 0
1273 5 1274 0 0
1274 5 1275 0 0
1275 5 1276 0 0
1276 5 1277 0 0
1277 5 1278 0 0
1278 5 1279 0 0
1279 5 1280 0 0
1280 5 1281 0 0
1281 2 1282 0 0
1282 2 1283 0 0
1283 2 1284 0 0
1284 2 1285 0 0
1285 2 1286 0 0
1286 2 1287 0 0
1287 2 1288 0 0
1288 2 1289 0 0
1289 2 1290 0 0
1290 2 1291 0 0
1291 2 1292 0 0
1292 2 1293 0 0
1293 2 1294 0 0
1294 2 1295 0 0
1295 2 1296 0 0
1296 2 1297 0 0
1297 2 1298 0 0
1298 2 1299 0 0
1299 2 1300 0 0
1300 2 1301 0 0
1301 2 1302 0 0
1302 2 1303 0 0
1303 2 1304 0 0
1304 2 1305 0 0
1305 2 1306 0 0
1306 2 1307 0 0
1307 2 1308 0 0
1308 2 1309 0 0
1309 2 1310 0 0
1310 2 1311 0 0
1311 3 1312 0 0
1312 3 1313 0 0
1313 5 1314 0 0
1314 5 1315 0 0
1315 5 1316 0 0
1316 5 1317 0 0
1317 3 1318 0 0
1318 3 1319 0 0
1319 3 1320 0 0
1320 3 1321 0 0
1321 5 1322 0 0
1322 5 1323 0 0
1323 3 1324 0 0
1324 3 1325 0 0
1325 3 1326 0 0
1326 3 1327 0 0
1327 3 1328 0 0
1328 3 1329 0 0
1329 2 1330 0 0
1330 2 1331 0 0
1331 2 1332 0 0
1332 2 1333 0 0
1333 5 1334 0 0
1334 5 1335 0 0
1335 5 1336 0 0
1336 5 1337 0 0
1337 5 1338 0 0
1338 5 1339 0 0
1339 2 1340 0 0
1340 2 1341 0 0
1341 5 1342 0 0
1342 5 1343 0 0
1343 2 1344 0 0
1344 2 1345 0 0
1345 3 1346 0 0
1346 3 1347 0 0
1347 2 1348 0 0
1348 2 1349 0 0
1349 2 1350 0 0
1350 2 1351 0 0
1351 2 1352 0 0
1352 2 1353 0 0
1353 2 1354 0 0
1354 2 1355 0 0
1355 2 1356 0 0
1356 2 1357 0 0
1357 2 1358 0 0
1358 2 1359 0 0
1359 2 1360 0 0
1360 2 1361 0 0
1361 3 1362 0 0
1362 3 1363 0 0
1363 3 1364 0 0
1364 3 1365 0 0
1365 3 1366 0 0
1366 3 1367 0 0
1367 2 1368 0 0
1368 2 1369 0 0
1369 1 1370 0 0
1370 1 1371 0 0
1371 1 1372 0 0
1372 1 1373 0 0
1373 1 1374 0 0
1374 1 1375 0 0
1375 1 1376 0 0
1376 1 1377 0 0
1377 2 1378 0 0
1378 2 1379 0 0
1379 6 1380 0 0
1380 6 1381 0 0
1381 6 1382 0 0
1382 6 1383 0 0
1383 6 1384 0 0
1384 6 1385 0 0
1385 6 1386 0 0
1386 6 1387 0 0
1387 6 1388 0 0
1388 6 1389 0 0
1389 6 1390 0 0
1390 6 1391 0 0
1391 6 1392 0 0
1392 6 1393 0 0
1393 6 1394 0 0
1394 6 1395 0 0
1395 6 1396 0 0
1396 6 1397 0 0
1397 6 1398 0 0
1398 6 1399 0 0
1399 6 1400 0 0
1400 6 1401 0 0
1401 6 1402 0 0
1402 6 1403 0 0
1403 6 1404 0 0
1404 6 1405 0 0
1405 6 1406 0 0
1406 6 1407 0 0
1407 6 1408 0 0
1408 6 1409 0 0
1409 6 1410 0 0
1410 6 1411 0 0
1411 6 1412 0 0
1412 6 1413 0 0
1413 6 1414 0 0
1414 6 1415 0 0
1415 2 1416 0 0
1416 2 1417 0 0
1417 2 1418 0 0
1418 2 1419 0 0
1419 2 1420 0 0
1420 2 1421 0 0
1421 3 1422 0 0
1422 3 1423 0 0
1423 3 1424 0 0
1424 3 1425 0 0
1425 3 1426 0 0
1426 3 1427 0 0
1427 3 1428 0 0
1428 3 1429 0 0
1429 3 1430 0 0
1430 3 1431 0 0
1431 2 1432 0 0
1432 2 1433 0 0
1433 2 1434 0 0
1434 2 1435 0 0
1435 1 1436 0 0
1436 1 1437 0 0
1437 2 1438 0 0
1438 2 1439 0 0
1439 3 1440 0 0
1440 3 1441 0 0
1441 3 1442 0 0
1442 3 1443 0 0
1443 2 1444 0 0
1444 2 1445 0 0
1445 2 1446 0 0
1446 2 1447 0 0
1447 3 1448 0 0
1448 3 1449 0 0
1449 3 1450 0 0
1450 3 1451 0 0
1451 3 1452 0 0
1452 3 1453 0 0
1453 3 1454 0 0
1454 3 1455 0 0
1455 3 1456 0 0
1456 3 1457 0 0
1457 2 1458 0 0
1458 2 1459 0 0
1459 2 1460 0 0
1460 2 1461 0 0
1461 2 1462 0 0
1462 2 1463 0 0
1463 2 1464 0 0
1464 2 1465 0 0
1465 3 1466 0 0
1466 3 1467 0 0
1467 3 1468 0 0
1468 3 1469 0 0
1469 3 1470 0 0
1470 3 1471 0 0
1471 3 1472 0 0
1472 3 1473 0 0
1473 3 1474 0 0
1474 3 1475 0 0
1475 2 1476 0 0
1476 2 1477 0 0
1477 2 1478 0 0
1478 2 1479 0 0
1479 2 1480 0 0
1480 2 1481 0 0
1481 2 1482 0 0
1482 2 1483 0 0
1483 2 1484 0 0
1484 2 1485 0 0
1485 3 1486 0 0
1486 3 1487 0 0
1487 3 1488 0 0
1488 3 1489 0 0
1489 3 1490 0 0
1490 3 1491 0 0
1491 3 1492 0 0
1492 3 1493 0 0
1493 2 1494 0 0
1494 2 1495 0 0
1495 2 1496 0 0
1496 2 1497 0 0
1497 1 1498 0 0
1498 1 1499 0 0
1499 2 1500 0 0
1500 2 1501 0 0
1501 2 1502 0 0
1502 2 1503 0 0
1503 2 1504 0 0
1504 2 1505 0 0
1505 3 1506 0 0
1506 3 1507 0 0
1507 3 1508 0 0
1508 3 1509 0 0
1509 2 1510 0 0
1510 2 1511 0 0
1511 2 1512 0 0
1512 2 1513 0 0
1513 2 1514 0 0
1514 2 1515 0 0
1515 2 1516 0 0
1516 2 1517 0 0
1517 1 1518 0 0
1518 1 1519 0 0
1519 2 1520 0 0
1520 2 1521 0 0
1521 1 1522 0 0
1522 1 1523 0 0
1523 2 1524 0 0
1524 2 1525 0 0
1525 3 1526 0 0
1526 3 1527 0 0
1527 2 1528 0 0
1528 2 1529 0 0
1529 2 1530 0 0
1530 2 1531 0 0
1531 3 1532 0 0
1532 3 1533 0 0
1533 2 1534 0 0
1534 2 1535 0 0
1535 2 1536 0 0
1536 2 1537 0 0
1537 2 1538 0 0
1538 2 1539 0 0
1539 2 1540 0 0
1540 2 1541 0 0
1541 2 1542 0 0
1542 2 1543 0 0
1543 2 1544 0 0
1544 2 1545 0 0
1545 2 1546 0 0
1546 2 1547 0 0
1547 2 1548 0 0
1548 2 1549 0 0
1549 2 1550 0 0
1550 2 1551 0 0
1551 1 1552 0 0
1552 1 1553 0 0
1553 1 1554 0 0
1554 1 1555 0 0
1555 2 1556 0 0
1556 2 1557 0 0
1557 2 1558 0 0
1558 2 1559 0 0
1559 1 1560 0 0
1560 1 1561 0 0
1561 1 1562 0 0
1562 1 1563 0 0
1563 2 1564 0 0
1564 2 1565 0 0
1565 2 1566 0 0
1566 2 1567 0 0
1567 2 1568 0 0
1568 2 1569 0 0
1569 2 1570 0 0
1570 2 1571 0 0
1571 1 1572 0 0
1572 1 1573 0 0
1573 2 1574 0 0
1574 2 1575 0 0
1575 2 1576 0 0
1576 2 1577 0 0
1577 2 1578 0 0
1578 2 1579 0 0
1579 2 1580 0 0
1580 2 1581 0 0
1581 3 1582 0 0
1582 3 1583 0 0
1583 3 1584 0 0
1584 3 1585 0 0
1585 2 1586 0 0
1586 2 1587 0 0
1587 2 1588 0 0
1588 2 1589 0 0
1589 2 1590 0 0
1590 2 1591 0 0
1591 2 1592 0 0
1592 2 1593 0 0
1593 2 1594 0 0
1594 2 1595 0 0
1595 2 1596 0 0
1596 2 1597 0 0
1597 2 1598 0 0
1598 2 1599 0 0
1599 2 1600 0 0
1600 2 1601 0 0
1601 2 1602 0 0
1602 2 1603 0 0
1603 2 1604 0 0
1604 2 1605 0 0
1605 2 1606 0 0
1606 2 1607 0 0
1607 3 1608 0 0
1608 3 1609 0 0
1609 2 1610 0 0
1610 2 1611 0 0
1611 2 1612 0 0
1612 2 1613 0 0
1613 2 1614 0 0
1614 2 1615 0 0
1615 2 1616 0 0
1616 2 1617 0 0
1617 2 1618 0 0
1618 2 1619 0 0
1619 2 1620 0 0
1620 2 1621 0 0
1621 2 1622 0 0
1622 2 1623 0 0
1623 2 1624 0 0
1624 2 1625 0 0
1625 2 1626 0 0
1626 2 1627 0 0
1627 2 1628 0 0
1628 2 1629 0 0
1629 2 1630 0 0
1630 2 1631 0 0
1631 2 1632 0 0
1632 2 1633 0 0
1633 5 1634 0 0
1634 5 1635 0 0
1635 5 1636 0 0
1636 5 1637 0 0
1637 5 1638 0 0
1638 5 1639 0 0
1639 5 1640 0 0
1640 5 1641 0 0
1641 5 1642 0 0
1642 5 1643 0 0
1643 5 1644 0 0
1644 5 1645 0 0
1645 5 1646 0 0
1646 5 1647 0 0
1647 2 1648 0 0
1648 2 1649 0 0
1649 2 1650 0 0
1650 2 1651 0 0
1651 2 1652 0 0
1652 2 1653 0 0
1653 5 1654 0 0
1654 5 1655 0 0
1655 5 1656 0 0
1656 5 1657 0 0
1657 5 1658 0 0
1658 5 1659 0 0
1659 5 1660 0 0
1660 5 1661 0 0
1661 5 1662 0 0
1662 5 1663 0 0
1663 5 1664 0 0
1664 5 1665 0 0
1665 5 1666 0 0
1666 5 1667 0 0
1667 5 1668 0 0
1668 5 1669 0 0
1669 5 1670 0 0
1670 5 1671 0 0
1671 5 1672 0 0
1672 5 1673 0 0
1673 5 1674 0 0
1674 5 1675 0 0
1675 5 1676 0 0
1676 5 1677 0 0
1677 5 1678 0 0
1678 5 1679 0 0
1679 5 1680 0 0
1680 5 1681 0 0
1681 5 1682 0 0
1682 5 1683 0 0
1683 5 1684 0 0
1684 5 1685 0 0
1685 5 1686 0 0
1686 5 1687 0 0
1687 5 1688 0 0
1688 5 1689 0 0
1689 5 1690 0 0
1690 5 1691 0 0
1691 5 1692 0 0
1692 5 1693 0 0
1693 5 1694 0 0
1694 5 1695 0 0
1695 5 1696 0 0
1696 5 1697 0 0
1697 5 1698 0 0
1698 5 1699 0 0
1699 5 1700 0 0
1700 5 1701 0 0
1701 5 1702 0 0
1702 5 1703 0 0
1703 5 1704 0 0
1704 5 1705 0 0
1705 5 1706 0 0
1706 5 1707 0 0
1707 5 1708 0 0
1708 5 1709 0 0
1709 5 1710 0 0
1710 5 1711 0 0
1711 5 1712 0 0
1712 5 1713 0 0
1713 5 1714 0 0
1714 5 1715 0 0
1715 5 1716 0 0
1716 5 1717 0 0
1717 5 1718 0 0
1718 5 1719 0 0
1719 5 1720 0 0
1720 5 1721 0 0
1721 5 1722 0 0
1722 5 1723 0 0
1723 5 1724 0 0
1724 5 1725 0 0
1725 5 1726 0 0
1726 5 1727 0 0
1727 2 1728 0 0
1728 2 1729 0 0
1729 2 1730 0 0
1730 2 1731 0 0
1731 2 1732 0 0
1732 2 1733 0 0
1733 2 1734 0 0
1734 2 1735 0 0
1735 5 1736 0 0
1736 5 1737 0 0
1737 5 1738 0 0
1738 5 1739 0 0
1739 5 1740 0 0
1740 5 1741 0 0
1741 5 1742 0 0
1742 5 1743 0 0
1743 5 1744 0 0
1744 5 1745 0 0
1745 5 1746 0 0
1746 5 1747 0 0
1747 5 1748 0 0
1748 5 1749 0 0
1749 5 1750 0 0
1750 5 1751 0 0
1751 5 1752 0 0
1752 5 1753 0 0
1753 5 1754 0 0
1754 5 1755 0 0
1755 5 1756 0 0
1756 5 1757 0 0
1757 5 1758 0 0
1758 5 1759 0 0
1759 5 1760 0 0
1760 5 1761 0 0
1761 2 1762 0 0
1762 2 1763 0 0
1763 2 1764 0 0
1764 2 1765 0 0
1765 2 1766 0 0
1766 2 1767 0 0
1767 2 1768 0 0
1768 2 1769 0 0
1769 2 1770 0 0
1770 2 1771 0 0
1771 2 1772 0 0
1772 2 1773 0 0
1773 2 1774 0 0
1774 2 1775 0 0
1775 2 1776 0 0
1776 2 1777 0 0
1777 2 1778 0 0
1778 2 1779 0 0
1779 2 1780 0 0
1780 2 1781 0 0
1781 2 1782 0 0
1782 2 1783 0 0
1783 2 1784 0 0
1784 2 1785 0 0
1785 2 1786 0 0
1786 2 1787 0 0
1787 5 1788 0 0
1788 5 1789 0 0
1789 5 1790 0 0
1790 5 1791 0 0
1791 5 1792 0 0
1792 5 1793 0 0
1793 2 1794 0 0
1794 2 1795 0 0
1795 2 1796 0 0
1796 2 1797 0 0
1797 5 1798 0 0
1798 5 1799 0 0
1799 5 1800 0 0
1800 5 1801 0 0
1801 5 1802 0 0
1802 5 1803 0 0
1803 5 1804 0 0
1804 5 1805 0 0
1805 5 1806 0 0
1806 5 1807 0 0
1807 5 1808 0 0
1808 5 1809 0 0
1809 5 1810 0 0
1810 5 1811 0 0
1811 2 1812 0 0
1812 2 1813 0 0
1813 2 1814 0 0
1814 2 1815 0 0
1815 5 1816 0 0
1816 5 1817 0 0
1817 5 1818 0 0
1818 5 1819 0 0
1819 5 1820 0 0
1820 5 1821 0 0
1821 5 1822 0 0
1822 5 1823 0 0
1823 5 1824 0 0
1824 5 1825 0 0
1825 5 1826 0 0
1826 5 1827 0 0
1827 5 1828 0 0
1828 5 1829 0 0
1829 5 1830 0 0
1830 5 1831 0 0
1831 5 1832 0 0
1832 5 1833 0 0
1833 6 1834 0 0
1834 6 1835 0 0
1835 5 1836 0 0
1836 5 1837 0 0
1837 5 1838 0 0
1838 5 1839 0 0
1839 5 1840 0 0
1840 5 1841 0 0
1841 5 1842 0 0
1842 5 1843 0 0
1843 5 1844 0 0
1844 5 1845 0 0
1845 5 1846 0 0
1846 5 1847 0 0
1847 5 1848 0 0
1848 5 1849 0 0
1849 5 1850 0 0
1850 5 1851 0 0
1851 5 1852 0 0
1852 5 1853 0 0
1853 5 1854 0 0
1854 5 1855 0 0
1855 5 1856 0 0
1856 5 1857 0 0
1857 5 1858 0 0
1858 5 1859 0 0
1859 5 1860 0 0
1860 5 1861 0 0
1861 5 1862 0 0
1862 5 1863 0 0
1863 5 1864 0 0
1864 5 1865 0 0
1865 5 1866 0 0
1866 5 1867 0 0
1867 5 1868 0 0
1868 5 1869 0 0
1869 5 1870 0 0
1870 5 1871 0 0
1871 5 1872 0 0
1872 5 1873 0 0
1873 5 1874 0 0
1874 5 1875 0 0
1875 5 1876 0 0
1876 5 1877 0 0
1877 5 1878 0 0
1878 5 1879 0 0
1879 2 1880 0 0
1880 2 1881 0 0
1881 2 1882 0 0
1882 2 1883 0 0
1883 2 1884 0 0
1884 2 1885 0 0
1885 2 1886 0 0
1886 2 1887 0 0
1887 2 1888 0 0
1888 2 1889 0 0
1889 2 1890 0 0
1890 2 1891 0 0
1891 2 1892 0 0
1892 2 1893 0 0
1893 5 1894 0 0
1894 5 1895 0 0
1895 5 1896 0 0
1896 5 1897 0 0
1897 2 1898 0 0
1898 2 1899 0 0
1899 2 1900 0 0
1900 2 1901 0 0
1901 2 1902 0 0
1902 2 1903 0 0
1903 2 1904 0 0
1904 2 1905 0 0
1905 2 1906 0 0
1906 2 1907 0 0
1907 2 1908 0 0
1908 2 1909 0 0
1909 2 1910 0 0
1910 2 1911 0 0
1911 2 1912 0 0
1912 2 1913 0 0
1913 2 1914 0 0
1914 2 1915 0 0
1915 2 1916 0 0
1916 2 1917 0 0
1917 2 1918 0 0
1918 2 1919 0 0
1919 2 1920 0 0
1920 2 1921 0 0
1921 2 1922 0 0
1922 2 1923 0 0
1923 2 1924 0 0
1924 2 1925 0 0
1925 2 1926 0 0
1926 2 1927 0 0
1927 2 1928 0 0
1928 2 1929 0 0
1929 2 1930 0 0
1930 2 1931 0 0
1931 5 1932 0 0
1932 5 1933 0 0
1933 5 1934 0 0
1934 5 1935 0 0
1935 5 1936 0 0
1936 5 1937 0 0
1937 5 1938 0 0
1938 5 1939 0 0
1939 5 1940 0 0
1940 5 1941 0 0
1941 5 1942 0 0
1942 5 1943 0 0
1943 5 1944 0 0
1944 5 1945 0 0
1945 5 1946 0 0
1946 5 1947 0 0
1947 5 1948 0 0
1948 5 1949 0 0
1949 5 1950 0 0
1950 5 1951 0 0
1951 5 1952 0 0
1952 5 1953 0 0
1953 5 1954 0 0
1954 5 1955 0 0
1955 5 1956 0 0
1956 5 1957 0 0
1957 5 1958 0 0
1958 5 1959 0 0
1959 5 1960 0 0
1960 5 1961 0 0
1961 5 1962 0 0
1962 5 1963 0 0
1963 5 1964 0 0
1964 5 1965 0 0
1965 2 1966 0 0
1966 2 1967 0 0
1967 2 1968 0 0
1968 2 1969 0 0
1969 5 1970 0 0
1970 5 1971 0 0
1971 5 1972 0 0
1972 5 1973 0 0
1973 5 1974 0 0
1974 5 1975 0 0
1975 5 1976 0 0
1976 5 1977 0 0
1977 6 1978 0 0
1978 6 1979 0 0
1979 5 1980 0 0
1980 5 1981 0 0
1981 5 1982 0 0
1982 5 1983 0 0
1983 5 1984 0 0
1984 5 1985 0 0
1985 5 1986 0 0
1986 5 1987 0 0
1987 5 1988 0 0
1988 5 1989 0 0
1989 5 1990 0 0
1990 5 1991 0 0
1991 5 1992 0 0
1992 5 1993 0 0
1993 5 1994 0 0
1994 5 1995 0 0
1995 5 1996 0 0
1996 5 1997 0 0
1997 5 1998 0 0
1998 5 1999 0 0